s 0.100000000 _69_ AGT  --- 0 cbr 1000 [0 0 0 0] ------- [69:0 109:0 32 0] [0] 0 0
r 0.100000000 _69_ RTR  --- 0 cbr 1000 [0 0 0 0] ------- [69:0 109:0 32 0] [0] 0 0
s 0.100000000 _69_ AGT  --- 1 cbr 24 [0 0 0 0] ------- [69:0 109:0 32 0] [1] 0 0
r 0.100000000 _69_ RTR  --- 1 cbr 24 [0 0 0 0] ------- [69:0 109:0 32 0] [1] 0 0
s 0.100000000 _69_ RTR  --- 0 AODV 48 [0 0 0 0] ------- [69:255 -1:255 30 0] [0x2 1 1 [109 0] [69 4]] (REQUEST)
r 0.101408717 _141_ RTR  --- 0 AODV 48 [0 ffffffff 45 800] ------- [69:255 -1:255 30 0] [0x2 1 1 [109 0] [69 4]] (REQUEST)
r 0.101408774 _58_ RTR  --- 0 AODV 48 [0 ffffffff 45 800] ------- [69:255 -1:255 30 0] [0x2 1 1 [109 0] [69 4]] (REQUEST)
r 0.101408775 _77_ RTR  --- 0 AODV 48 [0 ffffffff 45 800] ------- [69:255 -1:255 30 0] [0x2 1 1 [109 0] [69 4]] (REQUEST)
s 0.101550763 _141_ RTR  --- 0 AODV 48 [0 ffffffff 45 800] ------- [141:255 -1:255 29 0] [0x2 2 1 [109 0] [69 4]] (REQUEST)
s 0.102290001 _58_ RTR  --- 0 AODV 48 [0 ffffffff 45 800] ------- [58:255 -1:255 29 0] [0x2 2 1 [109 0] [69 4]] (REQUEST)
r 0.102499000 _111_ RTR  --- 0 AODV 48 [0 ffffffff 8d 800] ------- [141:255 -1:255 29 0] [0x2 2 1 [109 0] [69 4]] (REQUEST)
r 0.102499027 _53_ RTR  --- 0 AODV 48 [0 ffffffff 8d 800] ------- [141:255 -1:255 29 0] [0x2 2 1 [109 0] [69 4]] (REQUEST)
r 0.102499031 _102_ RTR  --- 0 AODV 48 [0 ffffffff 8d 800] ------- [141:255 -1:255 29 0] [0x2 2 1 [109 0] [69 4]] (REQUEST)
r 0.102499035 _77_ RTR  --- 0 AODV 48 [0 ffffffff 8d 800] ------- [141:255 -1:255 29 0] [0x2 2 1 [109 0] [69 4]] (REQUEST)
r 0.102499453 _66_ RTR  --- 0 AODV 48 [0 ffffffff 8d 800] ------- [141:255 -1:255 29 0] [0x2 2 1 [109 0] [69 4]] (REQUEST)
r 0.102499475 _57_ RTR  --- 0 AODV 48 [0 ffffffff 8d 800] ------- [141:255 -1:255 29 0] [0x2 2 1 [109 0] [69 4]] (REQUEST)
r 0.102499480 _69_ RTR  --- 0 AODV 48 [0 ffffffff 8d 800] ------- [141:255 -1:255 29 0] [0x2 2 1 [109 0] [69 4]] (REQUEST)
r 0.102499517 _7_ RTR  --- 0 AODV 48 [0 ffffffff 8d 800] ------- [141:255 -1:255 29 0] [0x2 2 1 [109 0] [69 4]] (REQUEST)
s 0.102927462 _7_ RTR  --- 0 AODV 48 [0 ffffffff 8d 800] ------- [7:255 -1:255 28 0] [0x2 3 1 [109 0] [69 4]] (REQUEST)
r 0.103922239 _130_ RTR  --- 0 AODV 48 [0 ffffffff 3a 800] ------- [58:255 -1:255 29 0] [0x2 2 1 [109 0] [69 4]] (REQUEST)
r 0.103922350 _100_ RTR  --- 0 AODV 48 [0 ffffffff 3a 800] ------- [58:255 -1:255 29 0] [0x2 2 1 [109 0] [69 4]] (REQUEST)
r 0.103922769 _69_ RTR  --- 0 AODV 48 [0 ffffffff 3a 800] ------- [58:255 -1:255 29 0] [0x2 2 1 [109 0] [69 4]] (REQUEST)
s 0.104140929 _57_ RTR  --- 0 AODV 48 [0 ffffffff 8d 800] ------- [57:255 -1:255 28 0] [0x2 3 1 [109 0] [69 4]] (REQUEST)
s 0.104845018 _111_ RTR  --- 0 AODV 48 [0 ffffffff 8d 800] ------- [111:255 -1:255 28 0] [0x2 3 1 [109 0] [69 4]] (REQUEST)
r 0.105305301 _57_ RTR  --- 0 AODV 48 [0 ffffffff 7 800] ------- [7:255 -1:255 28 0] [0x2 3 1 [109 0] [69 4]] (REQUEST)
r 0.105305673 _102_ RTR  --- 0 AODV 48 [0 ffffffff 7 800] ------- [7:255 -1:255 28 0] [0x2 3 1 [109 0] [69 4]] (REQUEST)
r 0.105305689 _145_ RTR  --- 0 AODV 48 [0 ffffffff 7 800] ------- [7:255 -1:255 28 0] [0x2 3 1 [109 0] [69 4]] (REQUEST)
r 0.105305800 _144_ RTR  --- 0 AODV 48 [0 ffffffff 7 800] ------- [7:255 -1:255 28 0] [0x2 3 1 [109 0] [69 4]] (REQUEST)
r 0.105305873 _81_ RTR  --- 0 AODV 48 [0 ffffffff 7 800] ------- [7:255 -1:255 28 0] [0x2 3 1 [109 0] [69 4]] (REQUEST)
r 0.105305922 _141_ RTR  --- 0 AODV 48 [0 ffffffff 7 800] ------- [7:255 -1:255 28 0] [0x2 3 1 [109 0] [69 4]] (REQUEST)
r 0.105305970 _111_ RTR  --- 0 AODV 48 [0 ffffffff 7 800] ------- [7:255 -1:255 28 0] [0x2 3 1 [109 0] [69 4]] (REQUEST)
s 0.105589822 _102_ RTR  --- 0 AODV 48 [0 ffffffff 8d 800] ------- [102:255 -1:255 28 0] [0x2 3 1 [109 0] [69 4]] (REQUEST)
s 0.105820508 _77_ RTR  --- 0 AODV 48 [0 ffffffff 45 800] ------- [77:255 -1:255 29 0] [0x2 2 1 [109 0] [69 4]] (REQUEST)
r 0.106544083 _53_ RTR  --- 0 AODV 48 [0 ffffffff 6f 800] ------- [111:255 -1:255 28 0] [0x2 3 1 [109 0] [69 4]] (REQUEST)
r 0.106544207 _141_ RTR  --- 0 AODV 48 [0 ffffffff 6f 800] ------- [111:255 -1:255 28 0] [0x2 3 1 [109 0] [69 4]] (REQUEST)
r 0.106544269 _77_ RTR  --- 0 AODV 48 [0 ffffffff 6f 800] ------- [111:255 -1:255 28 0] [0x2 3 1 [109 0] [69 4]] (REQUEST)
r 0.106544279 _102_ RTR  --- 0 AODV 48 [0 ffffffff 6f 800] ------- [111:255 -1:255 28 0] [0x2 3 1 [109 0] [69 4]] (REQUEST)
r 0.106544483 _66_ RTR  --- 0 AODV 48 [0 ffffffff 6f 800] ------- [111:255 -1:255 28 0] [0x2 3 1 [109 0] [69 4]] (REQUEST)
r 0.106544716 _19_ RTR  --- 0 AODV 48 [0 ffffffff 6f 800] ------- [111:255 -1:255 28 0] [0x2 3 1 [109 0] [69 4]] (REQUEST)
r 0.106544769 _57_ RTR  --- 0 AODV 48 [0 ffffffff 6f 800] ------- [111:255 -1:255 28 0] [0x2 3 1 [109 0] [69 4]] (REQUEST)
r 0.106544772 _7_ RTR  --- 0 AODV 48 [0 ffffffff 6f 800] ------- [111:255 -1:255 28 0] [0x2 3 1 [109 0] [69 4]] (REQUEST)
r 0.107462902 _7_ RTR  --- 0 AODV 48 [0 ffffffff 39 800] ------- [57:255 -1:255 28 0] [0x2 3 1 [109 0] [69 4]] (REQUEST)
r 0.107463260 _102_ RTR  --- 0 AODV 48 [0 ffffffff 39 800] ------- [57:255 -1:255 28 0] [0x2 3 1 [109 0] [69 4]] (REQUEST)
r 0.107463359 _145_ RTR  --- 0 AODV 48 [0 ffffffff 39 800] ------- [57:255 -1:255 28 0] [0x2 3 1 [109 0] [69 4]] (REQUEST)
r 0.107463481 _141_ RTR  --- 0 AODV 48 [0 ffffffff 39 800] ------- [57:255 -1:255 28 0] [0x2 3 1 [109 0] [69 4]] (REQUEST)
r 0.107463520 _81_ RTR  --- 0 AODV 48 [0 ffffffff 39 800] ------- [57:255 -1:255 28 0] [0x2 3 1 [109 0] [69 4]] (REQUEST)
r 0.107463529 _144_ RTR  --- 0 AODV 48 [0 ffffffff 39 800] ------- [57:255 -1:255 28 0] [0x2 3 1 [109 0] [69 4]] (REQUEST)
r 0.107463568 _111_ RTR  --- 0 AODV 48 [0 ffffffff 39 800] ------- [57:255 -1:255 28 0] [0x2 3 1 [109 0] [69 4]] (REQUEST)
s 0.107886680 _144_ RTR  --- 0 AODV 48 [0 ffffffff 7 800] ------- [144:255 -1:255 27 0] [0x2 4 1 [109 0] [69 4]] (REQUEST)
s 0.108158917 _100_ RTR  --- 0 AODV 48 [0 ffffffff 3a 800] ------- [100:255 -1:255 28 0] [0x2 3 1 [109 0] [69 4]] (REQUEST)
r 0.108581528 _141_ RTR  --- 0 AODV 48 [0 ffffffff 66 800] ------- [102:255 -1:255 28 0] [0x2 3 1 [109 0] [69 4]] (REQUEST)
r 0.108581569 _111_ RTR  --- 0 AODV 48 [0 ffffffff 66 800] ------- [102:255 -1:255 28 0] [0x2 3 1 [109 0] [69 4]] (REQUEST)
r 0.108581669 _53_ RTR  --- 0 AODV 48 [0 ffffffff 66 800] ------- [102:255 -1:255 28 0] [0x2 3 1 [109 0] [69 4]] (REQUEST)
r 0.108581751 _57_ RTR  --- 0 AODV 48 [0 ffffffff 66 800] ------- [102:255 -1:255 28 0] [0x2 3 1 [109 0] [69 4]] (REQUEST)
r 0.108581765 _7_ RTR  --- 0 AODV 48 [0 ffffffff 66 800] ------- [102:255 -1:255 28 0] [0x2 3 1 [109 0] [69 4]] (REQUEST)
r 0.108581777 _77_ RTR  --- 0 AODV 48 [0 ffffffff 66 800] ------- [102:255 -1:255 28 0] [0x2 3 1 [109 0] [69 4]] (REQUEST)
r 0.108582045 _144_ RTR  --- 0 AODV 48 [0 ffffffff 66 800] ------- [102:255 -1:255 28 0] [0x2 3 1 [109 0] [69 4]] (REQUEST)
r 0.108582080 _66_ RTR  --- 0 AODV 48 [0 ffffffff 66 800] ------- [102:255 -1:255 28 0] [0x2 3 1 [109 0] [69 4]] (REQUEST)
s 0.108793099 _145_ RTR  --- 0 AODV 48 [0 ffffffff 7 800] ------- [145:255 -1:255 27 0] [0x2 4 1 [109 0] [69 4]] (REQUEST)
s 0.108887679 _53_ RTR  --- 0 AODV 48 [0 ffffffff 8d 800] ------- [53:255 -1:255 28 0] [0x2 3 1 [109 0] [69 4]] (REQUEST)
s 0.109392730 _81_ RTR  --- 0 AODV 48 [0 ffffffff 7 800] ------- [81:255 -1:255 27 0] [0x2 4 1 [109 0] [69 4]] (REQUEST)
r 0.109899988 _53_ RTR  --- 0 AODV 48 [0 ffffffff 4d 800] ------- [77:255 -1:255 29 0] [0x2 2 1 [109 0] [69 4]] (REQUEST)
r 0.109900049 _141_ RTR  --- 0 AODV 48 [0 ffffffff 4d 800] ------- [77:255 -1:255 29 0] [0x2 2 1 [109 0] [69 4]] (REQUEST)
r 0.109900077 _111_ RTR  --- 0 AODV 48 [0 ffffffff 4d 800] ------- [77:255 -1:255 29 0] [0x2 2 1 [109 0] [69 4]] (REQUEST)
r 0.109900279 _66_ RTR  --- 0 AODV 48 [0 ffffffff 4d 800] ------- [77:255 -1:255 29 0] [0x2 2 1 [109 0] [69 4]] (REQUEST)
r 0.109900294 _102_ RTR  --- 0 AODV 48 [0 ffffffff 4d 800] ------- [77:255 -1:255 29 0] [0x2 2 1 [109 0] [69 4]] (REQUEST)
r 0.109900552 _69_ RTR  --- 0 AODV 48 [0 ffffffff 4d 800] ------- [77:255 -1:255 29 0] [0x2 2 1 [109 0] [69 4]] (REQUEST)
s 0.110862689 _66_ RTR  --- 0 AODV 48 [0 ffffffff 8d 800] ------- [66:255 -1:255 28 0] [0x2 3 1 [109 0] [69 4]] (REQUEST)
r 0.111098102 _111_ RTR  --- 0 AODV 48 [0 ffffffff 35 800] ------- [53:255 -1:255 28 0] [0x2 3 1 [109 0] [69 4]] (REQUEST)
r 0.111098199 _77_ RTR  --- 0 AODV 48 [0 ffffffff 35 800] ------- [53:255 -1:255 28 0] [0x2 3 1 [109 0] [69 4]] (REQUEST)
r 0.111098252 _141_ RTR  --- 0 AODV 48 [0 ffffffff 35 800] ------- [53:255 -1:255 28 0] [0x2 3 1 [109 0] [69 4]] (REQUEST)
r 0.111098397 _102_ RTR  --- 0 AODV 48 [0 ffffffff 35 800] ------- [53:255 -1:255 28 0] [0x2 3 1 [109 0] [69 4]] (REQUEST)
r 0.111098419 _66_ RTR  --- 0 AODV 48 [0 ffffffff 35 800] ------- [53:255 -1:255 28 0] [0x2 3 1 [109 0] [69 4]] (REQUEST)
r 0.111098716 _19_ RTR  --- 0 AODV 48 [0 ffffffff 35 800] ------- [53:255 -1:255 28 0] [0x2 3 1 [109 0] [69 4]] (REQUEST)
r 0.111484203 _122_ RTR  --- 0 AODV 48 [0 ffffffff 64 800] ------- [100:255 -1:255 28 0] [0x2 3 1 [109 0] [69 4]] (REQUEST)
r 0.112276851 _53_ RTR  --- 0 AODV 48 [0 ffffffff 42 800] ------- [66:255 -1:255 28 0] [0x2 3 1 [109 0] [69 4]] (REQUEST)
r 0.112276873 _19_ RTR  --- 0 AODV 48 [0 ffffffff 42 800] ------- [66:255 -1:255 28 0] [0x2 3 1 [109 0] [69 4]] (REQUEST)
r 0.112276921 _77_ RTR  --- 0 AODV 48 [0 ffffffff 42 800] ------- [66:255 -1:255 28 0] [0x2 3 1 [109 0] [69 4]] (REQUEST)
r 0.112276932 _111_ RTR  --- 0 AODV 48 [0 ffffffff 42 800] ------- [66:255 -1:255 28 0] [0x2 3 1 [109 0] [69 4]] (REQUEST)
r 0.112277110 _141_ RTR  --- 0 AODV 48 [0 ffffffff 42 800] ------- [66:255 -1:255 28 0] [0x2 3 1 [109 0] [69 4]] (REQUEST)
r 0.112277152 _70_ RTR  --- 0 AODV 48 [0 ffffffff 42 800] ------- [66:255 -1:255 28 0] [0x2 3 1 [109 0] [69 4]] (REQUEST)
r 0.112277239 _60_ RTR  --- 0 AODV 48 [0 ffffffff 42 800] ------- [66:255 -1:255 28 0] [0x2 3 1 [109 0] [69 4]] (REQUEST)
s 0.112519516 _130_ RTR  --- 0 AODV 48 [0 ffffffff 3a 800] ------- [130:255 -1:255 28 0] [0x2 3 1 [109 0] [69 4]] (REQUEST)
r 0.112887609 _91_ RTR  --- 0 AODV 48 [0 ffffffff 51 800] ------- [81:255 -1:255 27 0] [0x2 4 1 [109 0] [69 4]] (REQUEST)
r 0.112887766 _40_ RTR  --- 0 AODV 48 [0 ffffffff 51 800] ------- [81:255 -1:255 27 0] [0x2 4 1 [109 0] [69 4]] (REQUEST)
r 0.112887790 _44_ RTR  --- 0 AODV 48 [0 ffffffff 51 800] ------- [81:255 -1:255 27 0] [0x2 4 1 [109 0] [69 4]] (REQUEST)
s 0.113397553 _60_ RTR  --- 0 AODV 48 [0 ffffffff 42 800] ------- [60:255 -1:255 27 0] [0x2 4 1 [109 0] [69 4]] (REQUEST)
s 0.114118825 _44_ RTR  --- 0 AODV 48 [0 ffffffff 51 800] ------- [44:255 -1:255 26 0] [0x2 5 1 [109 0] [69 4]] (REQUEST)
r 0.114210719 _58_ RTR  --- 0 AODV 48 [0 ffffffff 82 800] ------- [130:255 -1:255 28 0] [0x2 3 1 [109 0] [69 4]] (REQUEST)
r 0.114210782 _100_ RTR  --- 0 AODV 48 [0 ffffffff 82 800] ------- [130:255 -1:255 28 0] [0x2 3 1 [109 0] [69 4]] (REQUEST)
r 0.114211246 _44_ RTR  --- 0 AODV 48 [0 ffffffff 82 800] ------- [130:255 -1:255 28 0] [0x2 3 1 [109 0] [69 4]] (REQUEST)
r 0.114525836 _109_ RTR  --- 0 AODV 48 [0 ffffffff 3c 800] ------- [60:255 -1:255 27 0] [0x2 4 1 [109 0] [69 4]] (REQUEST)
s 0.114525836 _109_ RTR  --- 0 AODV 44 [0 0 0 0] ------- [109:255 69:255 30 60] [0x4 1 [109 4] 10.000000] (REPLY)
r 0.114525916 _9_ RTR  --- 0 AODV 48 [0 ffffffff 3c 800] ------- [60:255 -1:255 27 0] [0x2 4 1 [109 0] [69 4]] (REQUEST)
r 0.114525931 _1_ RTR  --- 0 AODV 48 [0 ffffffff 3c 800] ------- [60:255 -1:255 27 0] [0x2 4 1 [109 0] [69 4]] (REQUEST)
r 0.114525989 _54_ RTR  --- 0 AODV 48 [0 ffffffff 3c 800] ------- [60:255 -1:255 27 0] [0x2 4 1 [109 0] [69 4]] (REQUEST)
r 0.114526012 _19_ RTR  --- 0 AODV 48 [0 ffffffff 3c 800] ------- [60:255 -1:255 27 0] [0x2 4 1 [109 0] [69 4]] (REQUEST)
r 0.114526051 _103_ RTR  --- 0 AODV 48 [0 ffffffff 3c 800] ------- [60:255 -1:255 27 0] [0x2 4 1 [109 0] [69 4]] (REQUEST)
r 0.114526251 _31_ RTR  --- 0 AODV 48 [0 ffffffff 3c 800] ------- [60:255 -1:255 27 0] [0x2 4 1 [109 0] [69 4]] (REQUEST)
r 0.114526333 _87_ RTR  --- 0 AODV 48 [0 ffffffff 3c 800] ------- [60:255 -1:255 27 0] [0x2 4 1 [109 0] [69 4]] (REQUEST)
r 0.114526355 _129_ RTR  --- 0 AODV 48 [0 ffffffff 3c 800] ------- [60:255 -1:255 27 0] [0x2 4 1 [109 0] [69 4]] (REQUEST)
r 0.114526373 _66_ RTR  --- 0 AODV 48 [0 ffffffff 3c 800] ------- [60:255 -1:255 27 0] [0x2 4 1 [109 0] [69 4]] (REQUEST)
r 0.114526381 _48_ RTR  --- 0 AODV 48 [0 ffffffff 3c 800] ------- [60:255 -1:255 27 0] [0x2 4 1 [109 0] [69 4]] (REQUEST)
s 0.114801825 _31_ RTR  --- 0 AODV 48 [0 ffffffff 3c 800] ------- [31:255 -1:255 26 0] [0x2 5 1 [109 0] [69 4]] (REQUEST)
s 0.115165389 _19_ RTR  --- 0 AODV 48 [0 ffffffff 6f 800] ------- [19:255 -1:255 27 0] [0x2 4 1 [109 0] [69 4]] (REQUEST)
r 0.115389878 _81_ RTR  --- 0 AODV 48 [0 ffffffff 2c 800] ------- [44:255 -1:255 26 0] [0x2 5 1 [109 0] [69 4]] (REQUEST)
r 0.115389947 _135_ RTR  --- 0 AODV 48 [0 ffffffff 2c 800] ------- [44:255 -1:255 26 0] [0x2 5 1 [109 0] [69 4]] (REQUEST)
r 0.115389978 _126_ RTR  --- 0 AODV 48 [0 ffffffff 2c 800] ------- [44:255 -1:255 26 0] [0x2 5 1 [109 0] [69 4]] (REQUEST)
r 0.115389985 _145_ RTR  --- 0 AODV 48 [0 ffffffff 2c 800] ------- [44:255 -1:255 26 0] [0x2 5 1 [109 0] [69 4]] (REQUEST)
r 0.115390017 _130_ RTR  --- 0 AODV 48 [0 ffffffff 2c 800] ------- [44:255 -1:255 26 0] [0x2 5 1 [109 0] [69 4]] (REQUEST)
r 0.115390031 _138_ RTR  --- 0 AODV 48 [0 ffffffff 2c 800] ------- [44:255 -1:255 26 0] [0x2 5 1 [109 0] [69 4]] (REQUEST)
r 0.115390071 _91_ RTR  --- 0 AODV 48 [0 ffffffff 2c 800] ------- [44:255 -1:255 26 0] [0x2 5 1 [109 0] [69 4]] (REQUEST)
s 0.116244393 _40_ RTR  --- 0 AODV 48 [0 ffffffff 51 800] ------- [40:255 -1:255 26 0] [0x2 5 1 [109 0] [69 4]] (REQUEST)
s 0.116303600 _138_ RTR  --- 0 AODV 48 [0 ffffffff 2c 800] ------- [138:255 -1:255 25 0] [0x2 6 1 [109 0] [69 4]] (REQUEST)
s 0.116388497 _129_ RTR  --- 0 AODV 48 [0 ffffffff 3c 800] ------- [129:255 -1:255 26 0] [0x2 5 1 [109 0] [69 4]] (REQUEST)
r 0.116488200 _81_ RTR  --- 0 AODV 48 [0 ffffffff 91 800] ------- [145:255 -1:255 27 0] [0x2 4 1 [109 0] [69 4]] (REQUEST)
r 0.116488506 _7_ RTR  --- 0 AODV 48 [0 ffffffff 91 800] ------- [145:255 -1:255 27 0] [0x2 4 1 [109 0] [69 4]] (REQUEST)
r 0.116488576 _57_ RTR  --- 0 AODV 48 [0 ffffffff 91 800] ------- [145:255 -1:255 27 0] [0x2 4 1 [109 0] [69 4]] (REQUEST)
r 0.116488631 _91_ RTR  --- 0 AODV 48 [0 ffffffff 91 800] ------- [145:255 -1:255 27 0] [0x2 4 1 [109 0] [69 4]] (REQUEST)
r 0.116488724 _44_ RTR  --- 0 AODV 48 [0 ffffffff 91 800] ------- [145:255 -1:255 27 0] [0x2 4 1 [109 0] [69 4]] (REQUEST)
r 0.116488745 _144_ RTR  --- 0 AODV 48 [0 ffffffff 91 800] ------- [145:255 -1:255 27 0] [0x2 4 1 [109 0] [69 4]] (REQUEST)
r 0.116488782 _79_ RTR  --- 0 AODV 48 [0 ffffffff 91 800] ------- [145:255 -1:255 27 0] [0x2 4 1 [109 0] [69 4]] (REQUEST)
r 0.116488798 _40_ RTR  --- 0 AODV 48 [0 ffffffff 91 800] ------- [145:255 -1:255 27 0] [0x2 4 1 [109 0] [69 4]] (REQUEST)
s 0.117144172 _1_ RTR  --- 0 AODV 48 [0 ffffffff 3c 800] ------- [1:255 -1:255 26 0] [0x2 5 1 [109 0] [69 4]] (REQUEST)
s 0.117177225 _135_ RTR  --- 0 AODV 48 [0 ffffffff 2c 800] ------- [135:255 -1:255 25 0] [0x2 6 1 [109 0] [69 4]] (REQUEST)
s 0.117370784 _79_ RTR  --- 0 AODV 48 [0 ffffffff 91 800] ------- [79:255 -1:255 26 0] [0x2 5 1 [109 0] [69 4]] (REQUEST)
r 0.117506982 _91_ RTR  --- 0 AODV 48 [0 ffffffff 28 800] ------- [40:255 -1:255 26 0] [0x2 5 1 [109 0] [69 4]] (REQUEST)
r 0.117507151 _148_ RTR  --- 0 AODV 48 [0 ffffffff 28 800] ------- [40:255 -1:255 26 0] [0x2 5 1 [109 0] [69 4]] (REQUEST)
r 0.117507323 _97_ RTR  --- 0 AODV 48 [0 ffffffff 28 800] ------- [40:255 -1:255 26 0] [0x2 5 1 [109 0] [69 4]] (REQUEST)
r 0.117507405 _81_ RTR  --- 0 AODV 48 [0 ffffffff 28 800] ------- [40:255 -1:255 26 0] [0x2 5 1 [109 0] [69 4]] (REQUEST)
r 0.117507487 _142_ RTR  --- 0 AODV 48 [0 ffffffff 28 800] ------- [40:255 -1:255 26 0] [0x2 5 1 [109 0] [69 4]] (REQUEST)
r 0.117507544 _20_ RTR  --- 0 AODV 48 [0 ffffffff 28 800] ------- [40:255 -1:255 26 0] [0x2 5 1 [109 0] [69 4]] (REQUEST)
r 0.117507611 _145_ RTR  --- 0 AODV 48 [0 ffffffff 28 800] ------- [40:255 -1:255 26 0] [0x2 5 1 [109 0] [69 4]] (REQUEST)
s 0.117799503 _87_ RTR  --- 0 AODV 48 [0 ffffffff 3c 800] ------- [87:255 -1:255 26 0] [0x2 5 1 [109 0] [69 4]] (REQUEST)
r 0.118707053 _66_ RTR  --- 0 AODV 48 [0 ffffffff 13 800] ------- [19:255 -1:255 27 0] [0x2 4 1 [109 0] [69 4]] (REQUEST)
r 0.118707059 _60_ RTR  --- 0 AODV 48 [0 ffffffff 13 800] ------- [19:255 -1:255 27 0] [0x2 4 1 [109 0] [69 4]] (REQUEST)
r 0.118707085 _9_ RTR  --- 0 AODV 48 [0 ffffffff 13 800] ------- [19:255 -1:255 27 0] [0x2 4 1 [109 0] [69 4]] (REQUEST)
r 0.118707228 _109_ RTR  --- 0 AODV 48 [0 ffffffff 13 800] ------- [19:255 -1:255 27 0] [0x2 4 1 [109 0] [69 4]] (REQUEST)
r 0.118707328 _53_ RTR  --- 0 AODV 48 [0 ffffffff 13 800] ------- [19:255 -1:255 27 0] [0x2 4 1 [109 0] [69 4]] (REQUEST)
r 0.118707347 _111_ RTR  --- 0 AODV 48 [0 ffffffff 13 800] ------- [19:255 -1:255 27 0] [0x2 4 1 [109 0] [69 4]] (REQUEST)
r 0.118707354 _90_ RTR  --- 0 AODV 48 [0 ffffffff 13 800] ------- [19:255 -1:255 27 0] [0x2 4 1 [109 0] [69 4]] (REQUEST)
r 0.118707433 _1_ RTR  --- 0 AODV 48 [0 ffffffff 13 800] ------- [19:255 -1:255 27 0] [0x2 4 1 [109 0] [69 4]] (REQUEST)
s 0.118782924 _103_ RTR  --- 0 AODV 48 [0 ffffffff 3c 800] ------- [103:255 -1:255 26 0] [0x2 5 1 [109 0] [69 4]] (REQUEST)
r 0.118830004 _126_ RTR  --- 0 AODV 48 [0 ffffffff 87 800] ------- [135:255 -1:255 25 0] [0x2 6 1 [109 0] [69 4]] (REQUEST)
r 0.118830012 _138_ RTR  --- 0 AODV 48 [0 ffffffff 87 800] ------- [135:255 -1:255 25 0] [0x2 6 1 [109 0] [69 4]] (REQUEST)
r 0.118830071 _32_ RTR  --- 0 AODV 48 [0 ffffffff 87 800] ------- [135:255 -1:255 25 0] [0x2 6 1 [109 0] [69 4]] (REQUEST)
r 0.118830231 _63_ RTR  --- 0 AODV 48 [0 ffffffff 87 800] ------- [135:255 -1:255 25 0] [0x2 6 1 [109 0] [69 4]] (REQUEST)
r 0.118830376 _67_ RTR  --- 0 AODV 48 [0 ffffffff 87 800] ------- [135:255 -1:255 25 0] [0x2 6 1 [109 0] [69 4]] (REQUEST)
r 0.118830386 _143_ RTR  --- 0 AODV 48 [0 ffffffff 87 800] ------- [135:255 -1:255 25 0] [0x2 6 1 [109 0] [69 4]] (REQUEST)
r 0.118830474 _20_ RTR  --- 0 AODV 48 [0 ffffffff 87 800] ------- [135:255 -1:255 25 0] [0x2 6 1 [109 0] [69 4]] (REQUEST)
r 0.118830579 _44_ RTR  --- 0 AODV 48 [0 ffffffff 87 800] ------- [135:255 -1:255 25 0] [0x2 6 1 [109 0] [69 4]] (REQUEST)
s 0.118831976 _63_ RTR  --- 0 AODV 48 [0 ffffffff 87 800] ------- [63:255 -1:255 24 0] [0x2 7 1 [109 0] [69 4]] (REQUEST)
s 0.118837883 _91_ RTR  --- 0 AODV 48 [0 ffffffff 51 800] ------- [91:255 -1:255 26 0] [0x2 5 1 [109 0] [69 4]] (REQUEST)
r 0.119110321 _6_ RTR  --- 0 AODV 48 [0 ffffffff 4f 800] ------- [79:255 -1:255 26 0] [0x2 5 1 [109 0] [69 4]] (REQUEST)
r 0.119110530 _49_ RTR  --- 0 AODV 48 [0 ffffffff 4f 800] ------- [79:255 -1:255 26 0] [0x2 5 1 [109 0] [69 4]] (REQUEST)
s 0.119664674 _67_ RTR  --- 0 AODV 48 [0 ffffffff 87 800] ------- [67:255 -1:255 24 0] [0x2 7 1 [109 0] [69 4]] (REQUEST)
r 0.119785552 _54_ RTR  --- 0 AODV 48 [0 ffffffff 1 800] ------- [1:255 -1:255 26 0] [0x2 5 1 [109 0] [69 4]] (REQUEST)
r 0.119785704 _103_ RTR  --- 0 AODV 48 [0 ffffffff 1 800] ------- [1:255 -1:255 26 0] [0x2 5 1 [109 0] [69 4]] (REQUEST)
r 0.119785811 _60_ RTR  --- 0 AODV 48 [0 ffffffff 1 800] ------- [1:255 -1:255 26 0] [0x2 5 1 [109 0] [69 4]] (REQUEST)
r 0.119785861 _109_ RTR  --- 0 AODV 48 [0 ffffffff 1 800] ------- [1:255 -1:255 26 0] [0x2 5 1 [109 0] [69 4]] (REQUEST)
r 0.119785901 _129_ RTR  --- 0 AODV 48 [0 ffffffff 1 800] ------- [1:255 -1:255 26 0] [0x2 5 1 [109 0] [69 4]] (REQUEST)
r 0.119785926 _31_ RTR  --- 0 AODV 48 [0 ffffffff 1 800] ------- [1:255 -1:255 26 0] [0x2 5 1 [109 0] [69 4]] (REQUEST)
r 0.119785986 _9_ RTR  --- 0 AODV 48 [0 ffffffff 1 800] ------- [1:255 -1:255 26 0] [0x2 5 1 [109 0] [69 4]] (REQUEST)
r 0.119786038 _105_ RTR  --- 0 AODV 48 [0 ffffffff 1 800] ------- [1:255 -1:255 26 0] [0x2 5 1 [109 0] [69 4]] (REQUEST)
r 0.119786113 _87_ RTR  --- 0 AODV 48 [0 ffffffff 1 800] ------- [1:255 -1:255 26 0] [0x2 5 1 [109 0] [69 4]] (REQUEST)
r 0.119786162 _48_ RTR  --- 0 AODV 48 [0 ffffffff 1 800] ------- [1:255 -1:255 26 0] [0x2 5 1 [109 0] [69 4]] (REQUEST)
r 0.119786252 _59_ RTR  --- 0 AODV 48 [0 ffffffff 1 800] ------- [1:255 -1:255 26 0] [0x2 5 1 [109 0] [69 4]] (REQUEST)
r 0.119786265 _19_ RTR  --- 0 AODV 48 [0 ffffffff 1 800] ------- [1:255 -1:255 26 0] [0x2 5 1 [109 0] [69 4]] (REQUEST)
r 0.119868078 _32_ RTR  --- 0 AODV 48 [0 ffffffff 8a 800] ------- [138:255 -1:255 25 0] [0x2 6 1 [109 0] [69 4]] (REQUEST)
r 0.119868145 _135_ RTR  --- 0 AODV 48 [0 ffffffff 8a 800] ------- [138:255 -1:255 25 0] [0x2 6 1 [109 0] [69 4]] (REQUEST)
r 0.119868251 _126_ RTR  --- 0 AODV 48 [0 ffffffff 8a 800] ------- [138:255 -1:255 25 0] [0x2 6 1 [109 0] [69 4]] (REQUEST)
r 0.119868429 _63_ RTR  --- 0 AODV 48 [0 ffffffff 8a 800] ------- [138:255 -1:255 25 0] [0x2 6 1 [109 0] [69 4]] (REQUEST)
r 0.119868480 _143_ RTR  --- 0 AODV 48 [0 ffffffff 8a 800] ------- [138:255 -1:255 25 0] [0x2 6 1 [109 0] [69 4]] (REQUEST)
r 0.119868499 _20_ RTR  --- 0 AODV 48 [0 ffffffff 8a 800] ------- [138:255 -1:255 25 0] [0x2 6 1 [109 0] [69 4]] (REQUEST)
r 0.119868525 _67_ RTR  --- 0 AODV 48 [0 ffffffff 8a 800] ------- [138:255 -1:255 25 0] [0x2 6 1 [109 0] [69 4]] (REQUEST)
r 0.119868723 _98_ RTR  --- 0 AODV 48 [0 ffffffff 8a 800] ------- [138:255 -1:255 25 0] [0x2 6 1 [109 0] [69 4]] (REQUEST)
r 0.119868797 _44_ RTR  --- 0 AODV 48 [0 ffffffff 8a 800] ------- [138:255 -1:255 25 0] [0x2 6 1 [109 0] [69 4]] (REQUEST)
s 0.120074386 _54_ RTR  --- 0 AODV 48 [0 ffffffff 3c 800] ------- [54:255 -1:255 26 0] [0x2 5 1 [109 0] [69 4]] (REQUEST)
s 0.120207238 _90_ RTR  --- 0 AODV 48 [0 ffffffff 13 800] ------- [90:255 -1:255 26 0] [0x2 5 1 [109 0] [69 4]] (REQUEST)
s 0.120358638 _122_ RTR  --- 0 AODV 48 [0 ffffffff 64 800] ------- [122:255 -1:255 27 0] [0x2 4 1 [109 0] [69 4]] (REQUEST)
r 0.120784203 _31_ RTR  --- 0 AODV 48 [0 ffffffff 81 800] ------- [129:255 -1:255 26 0] [0x2 5 1 [109 0] [69 4]] (REQUEST)
r 0.120784231 _103_ RTR  --- 0 AODV 48 [0 ffffffff 81 800] ------- [129:255 -1:255 26 0] [0x2 5 1 [109 0] [69 4]] (REQUEST)
r 0.120784273 _54_ RTR  --- 0 AODV 48 [0 ffffffff 81 800] ------- [129:255 -1:255 26 0] [0x2 5 1 [109 0] [69 4]] (REQUEST)
r 0.120784370 _1_ RTR  --- 0 AODV 48 [0 ffffffff 81 800] ------- [129:255 -1:255 26 0] [0x2 5 1 [109 0] [69 4]] (REQUEST)
r 0.120784470 _48_ RTR  --- 0 AODV 48 [0 ffffffff 81 800] ------- [129:255 -1:255 26 0] [0x2 5 1 [109 0] [69 4]] (REQUEST)
r 0.120784567 _105_ RTR  --- 0 AODV 48 [0 ffffffff 81 800] ------- [129:255 -1:255 26 0] [0x2 5 1 [109 0] [69 4]] (REQUEST)
r 0.120784704 _60_ RTR  --- 0 AODV 48 [0 ffffffff 81 800] ------- [129:255 -1:255 26 0] [0x2 5 1 [109 0] [69 4]] (REQUEST)
r 0.120846638 _67_ RTR  --- 0 AODV 48 [0 ffffffff 3f 800] ------- [63:255 -1:255 24 0] [0x2 7 1 [109 0] [69 4]] (REQUEST)
r 0.120846674 _126_ RTR  --- 0 AODV 48 [0 ffffffff 3f 800] ------- [63:255 -1:255 24 0] [0x2 7 1 [109 0] [69 4]] (REQUEST)
r 0.120846781 _135_ RTR  --- 0 AODV 48 [0 ffffffff 3f 800] ------- [63:255 -1:255 24 0] [0x2 7 1 [109 0] [69 4]] (REQUEST)
r 0.120846785 _143_ RTR  --- 0 AODV 48 [0 ffffffff 3f 800] ------- [63:255 -1:255 24 0] [0x2 7 1 [109 0] [69 4]] (REQUEST)
r 0.120846847 _138_ RTR  --- 0 AODV 48 [0 ffffffff 3f 800] ------- [63:255 -1:255 24 0] [0x2 7 1 [109 0] [69 4]] (REQUEST)
r 0.120846858 _32_ RTR  --- 0 AODV 48 [0 ffffffff 3f 800] ------- [63:255 -1:255 24 0] [0x2 7 1 [109 0] [69 4]] (REQUEST)
r 0.120847068 _74_ RTR  --- 0 AODV 48 [0 ffffffff 3f 800] ------- [63:255 -1:255 24 0] [0x2 7 1 [109 0] [69 4]] (REQUEST)
s 0.121068130 _20_ RTR  --- 0 AODV 48 [0 ffffffff 28 800] ------- [20:255 -1:255 25 0] [0x2 6 1 [109 0] [69 4]] (REQUEST)
r 0.121109943 _102_ RTR  --- 0 AODV 48 [0 ffffffff 90 800] ------- [144:255 -1:255 27 0] [0x2 4 1 [109 0] [69 4]] (REQUEST)
r 0.121109980 _104_ RTR  --- 0 AODV 48 [0 ffffffff 90 800] ------- [144:255 -1:255 27 0] [0x2 4 1 [109 0] [69 4]] (REQUEST)
s 0.121190630 _70_ RTR  --- 0 AODV 48 [0 ffffffff 42 800] ------- [70:255 -1:255 27 0] [0x2 4 1 [109 0] [69 4]] (REQUEST)
s 0.121580913 _98_ RTR  --- 0 AODV 48 [0 ffffffff 8a 800] ------- [98:255 -1:255 24 0] [0x2 7 1 [109 0] [69 4]] (REQUEST)
r 0.121884845 _143_ RTR  --- 0 AODV 48 [0 ffffffff 43 800] ------- [67:255 -1:255 24 0] [0x2 7 1 [109 0] [69 4]] (REQUEST)
r 0.121884847 _63_ RTR  --- 0 AODV 48 [0 ffffffff 43 800] ------- [67:255 -1:255 24 0] [0x2 7 1 [109 0] [69 4]] (REQUEST)
r 0.121885058 _126_ RTR  --- 0 AODV 48 [0 ffffffff 43 800] ------- [67:255 -1:255 24 0] [0x2 7 1 [109 0] [69 4]] (REQUEST)
r 0.121885068 _74_ RTR  --- 0 AODV 48 [0 ffffffff 43 800] ------- [67:255 -1:255 24 0] [0x2 7 1 [109 0] [69 4]] (REQUEST)
r 0.121885135 _135_ RTR  --- 0 AODV 48 [0 ffffffff 43 800] ------- [67:255 -1:255 24 0] [0x2 7 1 [109 0] [69 4]] (REQUEST)
r 0.121885136 _32_ RTR  --- 0 AODV 48 [0 ffffffff 43 800] ------- [67:255 -1:255 24 0] [0x2 7 1 [109 0] [69 4]] (REQUEST)
r 0.121885152 _138_ RTR  --- 0 AODV 48 [0 ffffffff 43 800] ------- [67:255 -1:255 24 0] [0x2 7 1 [109 0] [69 4]] (REQUEST)
s 0.122152530 _143_ RTR  --- 0 AODV 48 [0 ffffffff 87 800] ------- [143:255 -1:255 24 0] [0x2 7 1 [109 0] [69 4]] (REQUEST)
s 0.122160420 _49_ RTR  --- 0 AODV 48 [0 ffffffff 4f 800] ------- [49:255 -1:255 25 0] [0x2 6 1 [109 0] [69 4]] (REQUEST)
s 0.122376252 _48_ RTR  --- 0 AODV 48 [0 ffffffff 3c 800] ------- [48:255 -1:255 26 0] [0x2 5 1 [109 0] [69 4]] (REQUEST)
r 0.122452999 _103_ RTR  --- 0 AODV 48 [0 ffffffff 1f 800] ------- [31:255 -1:255 26 0] [0x2 5 1 [109 0] [69 4]] (REQUEST)
r 0.122453055 _48_ RTR  --- 0 AODV 48 [0 ffffffff 1f 800] ------- [31:255 -1:255 26 0] [0x2 5 1 [109 0] [69 4]] (REQUEST)
r 0.122453076 _129_ RTR  --- 0 AODV 48 [0 ffffffff 1f 800] ------- [31:255 -1:255 26 0] [0x2 5 1 [109 0] [69 4]] (REQUEST)
r 0.122453148 _54_ RTR  --- 0 AODV 48 [0 ffffffff 1f 800] ------- [31:255 -1:255 26 0] [0x2 5 1 [109 0] [69 4]] (REQUEST)
r 0.122453267 _1_ RTR  --- 0 AODV 48 [0 ffffffff 1f 800] ------- [31:255 -1:255 26 0] [0x2 5 1 [109 0] [69 4]] (REQUEST)
r 0.122453338 _9_ RTR  --- 0 AODV 48 [0 ffffffff 1f 800] ------- [31:255 -1:255 26 0] [0x2 5 1 [109 0] [69 4]] (REQUEST)
r 0.122453472 _60_ RTR  --- 0 AODV 48 [0 ffffffff 1f 800] ------- [31:255 -1:255 26 0] [0x2 5 1 [109 0] [69 4]] (REQUEST)
s 0.122566109 _32_ RTR  --- 0 AODV 48 [0 ffffffff 87 800] ------- [32:255 -1:255 24 0] [0x2 7 1 [109 0] [69 4]] (REQUEST)
s 0.122762794 _6_ RTR  --- 0 AODV 48 [0 ffffffff 4f 800] ------- [6:255 -1:255 25 0] [0x2 6 1 [109 0] [69 4]] (REQUEST)
r 0.123120737 _67_ RTR  --- 0 AODV 48 [0 ffffffff 8f 800] ------- [143:255 -1:255 24 0] [0x2 7 1 [109 0] [69 4]] (REQUEST)
r 0.123120885 _63_ RTR  --- 0 AODV 48 [0 ffffffff 8f 800] ------- [143:255 -1:255 24 0] [0x2 7 1 [109 0] [69 4]] (REQUEST)
r 0.123120904 _74_ RTR  --- 0 AODV 48 [0 ffffffff 8f 800] ------- [143:255 -1:255 24 0] [0x2 7 1 [109 0] [69 4]] (REQUEST)
r 0.123120958 _32_ RTR  --- 0 AODV 48 [0 ffffffff 8f 800] ------- [143:255 -1:255 24 0] [0x2 7 1 [109 0] [69 4]] (REQUEST)
r 0.123120998 _138_ RTR  --- 0 AODV 48 [0 ffffffff 8f 800] ------- [143:255 -1:255 24 0] [0x2 7 1 [109 0] [69 4]] (REQUEST)
r 0.123121008 _126_ RTR  --- 0 AODV 48 [0 ffffffff 8f 800] ------- [143:255 -1:255 24 0] [0x2 7 1 [109 0] [69 4]] (REQUEST)
r 0.123121037 _135_ RTR  --- 0 AODV 48 [0 ffffffff 8f 800] ------- [143:255 -1:255 24 0] [0x2 7 1 [109 0] [69 4]] (REQUEST)
r 0.123121331 _98_ RTR  --- 0 AODV 48 [0 ffffffff 8f 800] ------- [143:255 -1:255 24 0] [0x2 7 1 [109 0] [69 4]] (REQUEST)
r 0.123121359 _20_ RTR  --- 0 AODV 48 [0 ffffffff 8f 800] ------- [143:255 -1:255 24 0] [0x2 7 1 [109 0] [69 4]] (REQUEST)
r 0.123168636 _6_ RTR  --- 0 AODV 48 [0 ffffffff 31 800] ------- [49:255 -1:255 25 0] [0x2 6 1 [109 0] [69 4]] (REQUEST)
r 0.123168770 _85_ RTR  --- 0 AODV 48 [0 ffffffff 31 800] ------- [49:255 -1:255 25 0] [0x2 6 1 [109 0] [69 4]] (REQUEST)
r 0.123169006 _51_ RTR  --- 0 AODV 48 [0 ffffffff 31 800] ------- [49:255 -1:255 25 0] [0x2 6 1 [109 0] [69 4]] (REQUEST)
r 0.123169127 _79_ RTR  --- 0 AODV 48 [0 ffffffff 31 800] ------- [49:255 -1:255 25 0] [0x2 6 1 [109 0] [69 4]] (REQUEST)
s 0.123292473 _9_ RTR  --- 0 AODV 48 [0 ffffffff 3c 800] ------- [9:255 -1:255 26 0] [0x2 5 1 [109 0] [69 4]] (REQUEST)
s 0.123368276 _148_ RTR  --- 0 AODV 48 [0 ffffffff 28 800] ------- [148:255 -1:255 25 0] [0x2 6 1 [109 0] [69 4]] (REQUEST)
r 0.123511157 _54_ RTR  --- 0 AODV 48 [0 ffffffff 67 800] ------- [103:255 -1:255 26 0] [0x2 5 1 [109 0] [69 4]] (REQUEST)
r 0.123511225 _31_ RTR  --- 0 AODV 48 [0 ffffffff 67 800] ------- [103:255 -1:255 26 0] [0x2 5 1 [109 0] [69 4]] (REQUEST)
r 0.123511271 _1_ RTR  --- 0 AODV 48 [0 ffffffff 67 800] ------- [103:255 -1:255 26 0] [0x2 5 1 [109 0] [69 4]] (REQUEST)
r 0.123511329 _129_ RTR  --- 0 AODV 48 [0 ffffffff 67 800] ------- [103:255 -1:255 26 0] [0x2 5 1 [109 0] [69 4]] (REQUEST)
r 0.123511461 _48_ RTR  --- 0 AODV 48 [0 ffffffff 67 800] ------- [103:255 -1:255 26 0] [0x2 5 1 [109 0] [69 4]] (REQUEST)
r 0.123511469 _9_ RTR  --- 0 AODV 48 [0 ffffffff 67 800] ------- [103:255 -1:255 26 0] [0x2 5 1 [109 0] [69 4]] (REQUEST)
r 0.123511498 _60_ RTR  --- 0 AODV 48 [0 ffffffff 67 800] ------- [103:255 -1:255 26 0] [0x2 5 1 [109 0] [69 4]] (REQUEST)
r 0.123511658 _109_ RTR  --- 0 AODV 48 [0 ffffffff 67 800] ------- [103:255 -1:255 26 0] [0x2 5 1 [109 0] [69 4]] (REQUEST)
r 0.123511773 _105_ RTR  --- 0 AODV 48 [0 ffffffff 67 800] ------- [103:255 -1:255 26 0] [0x2 5 1 [109 0] [69 4]] (REQUEST)
r 0.124039023 _138_ RTR  --- 0 AODV 48 [0 ffffffff 20 800] ------- [32:255 -1:255 24 0] [0x2 7 1 [109 0] [69 4]] (REQUEST)
r 0.124039150 _135_ RTR  --- 0 AODV 48 [0 ffffffff 20 800] ------- [32:255 -1:255 24 0] [0x2 7 1 [109 0] [69 4]] (REQUEST)
r 0.124039241 _126_ RTR  --- 0 AODV 48 [0 ffffffff 20 800] ------- [32:255 -1:255 24 0] [0x2 7 1 [109 0] [69 4]] (REQUEST)
r 0.124039385 _143_ RTR  --- 0 AODV 48 [0 ffffffff 20 800] ------- [32:255 -1:255 24 0] [0x2 7 1 [109 0] [69 4]] (REQUEST)